 +-------------------------------------------------+
 |                                                 |
 |      CCC   AA    SSS  TTTTT  EEEEE  PPPP        |
 |     C     A  A  S       T    E      P   P       |
 |     C     AAAA   SS     T    EEE    PPPP        |
 |     C     A  A     S    T    E      P           |
 |      CCC  A  A  SSS     T    EEEEE  P           |
 |                                                 |
 +-------------------------------------------------+
 |                                                 |
 | Welcome to Academic Release CASTEP version 21.1 |          
 | Ab Initio Total Energy Program                  |
 |                                                 |
 | Authors:                                        |
 | M. Segall, M. Probert, C. Pickard, P. Hasnip,   |
 | S. Clark, K. Refson, J. R. Yates, M. Payne      |
 |                                                 |
 | Contributors:                                   |
 | P. Lindan, P. Haynes, J. White, V. Milman,      |
 | N. Govind, M. Gibson, P. Tulip, V. Cocula,      |
 | B. Montanari, D. Quigley, M. Glover,            |
 | L. Bernasconi, A. Perlov, M. Plummer,           |
 | E. McNellis, J. Meyer, J. Gale, D. Jochym       |
 | J. Aarons, B. Walker, R. Gillen, D. Jones       |
 | T. Green, I. J. Bush, C. J. Armstrong,          |
 | E. J. Higgins, E. L. Brown, M. S. McFly,        |
 | J. Wilkins, B-C. Shih, P. J. P. Byrne,          |
 | R. J. Maurer, J. C. Womack, J. Dziedzic,        |
 | A. Bartok-Partay, L. LeBlanc                    |
 |                                                 |
 | Copyright (c) 2000 - 2020                       |
 |                                                 |
 |     Distributed under license from Cambridge    |
 |     Enterprise for academic use only.           |
 |                                                 |
 | Please cite                                     |
 |                                                 |
 |     "First principles methods using CASTEP"     |
 |                                                 |
 |         Zeitschrift fuer Kristallographie       |
 |           220(5-6) pp. 567-570 (2005)           |
 |                                                 |
 | S. J. Clark, M. D. Segall, C. J. Pickard,       |
 | P. J. Hasnip, M. J. Probert, K. Refson,         |
 | M. C. Payne                                     |
 |                                                 |
 |       in all publications arising from          |
 |              your use of CASTEP                 |
 |                                                 |
 +-------------------------------------------------+
 |                                                 |
 |              http://www.castep.org              |
 |                                                 |
 +-------------------------------------------------+



 Compiled for linux_epyc_gfortran on Wed, 23 Nov 2022 15:53:00 +0000
 from code version Version unavailable
 Compiler: ; Optimisation: fast
 MATHLIBS: openblas (LAPACK version 3.9.0)
 FFT Lib : fftw3 version fftw-3.3.5-sse2-avx
 Fundamental constants values: CODATA 2014

 Run started: Fri, 26 Sep 2025 10:01:00 +0100

 Atomic calculation performed for Si: 1s2 2s2 2p6 3s2 3p2

 Converged in 54 iterations to an ae energy of -7886.857 eV

   ============================================================                
   | Pseudopotential Report - Date of generation 26-09-2025   |                
   ------------------------------------------------------------                
   | Element: Si Ionic charge:  4.00 Level of theory: PBE     |                
   | Atomic Solver: Koelling-Harmon                           |                
   |                                                          |                
   |               Reference Electronic Structure             |                
   |         Orbital         Occupation         Energy        |                
   |            3s              2.000           -0.397        |                
   |            3p              2.000           -0.150        |                
   |                                                          |                
   |                 Pseudopotential Definition               |                
   |        Beta     l      e      Rc     scheme   norm       |                
   |          1      0   -0.397   1.797     qc      0         |                
   |          2      0    0.250   1.797     qc      0         |                
   |          3      1   -0.150   1.797     qc      0         |                
   |          4      1    0.250   1.797     qc      0         |                
   |          5      2    0.000   1.797     qc      0         |                
   |          6      2    0.250   1.797     qc      0         |                
   |         loc     3    0.000   1.797     pn      0         |                
   |                                                          |                
   | Augmentation charge Rinner = 1.255                       |                
   | Partial core correction Rc = 1.255                       |                
   ------------------------------------------------------------                
   | "3|1.8|5|6|7|30:31:32"                                   |                
   ------------------------------------------------------------                
   |      Author: Chris J. Pickard, Cambridge University      |                
   ============================================================                

 Pseudo atomic calculation performed for Si 3s2 3p2

 Converged in 16 iterations to a total energy of -164.6257 eV
 +-------------------------------------------------+
 |                                                 |
 |      CCC   AA    SSS  TTTTT  EEEEE  PPPP        |
 |     C     A  A  S       T    E      P   P       |
 |     C     AAAA   SS     T    EEE    PPPP        |
 |     C     A  A     S    T    E      P           |
 |      CCC  A  A  SSS     T    EEEEE  P           |
 |                                                 |
 +-------------------------------------------------+
 |                                                 |
 | Welcome to Academic Release CASTEP version 21.1 |          
 | Ab Initio Total Energy Program                  |
 |                                                 |
 | Authors:                                        |
 | M. Segall, M. Probert, C. Pickard, P. Hasnip,   |
 | S. Clark, K. Refson, J. R. Yates, M. Payne      |
 |                                                 |
 | Contributors:                                   |
 | P. Lindan, P. Haynes, J. White, V. Milman,      |
 | N. Govind, M. Gibson, P. Tulip, V. Cocula,      |
 | B. Montanari, D. Quigley, M. Glover,            |
 | L. Bernasconi, A. Perlov, M. Plummer,           |
 | E. McNellis, J. Meyer, J. Gale, D. Jochym       |
 | J. Aarons, B. Walker, R. Gillen, D. Jones       |
 | T. Green, I. J. Bush, C. J. Armstrong,          |
 | E. J. Higgins, E. L. Brown, M. S. McFly,        |
 | J. Wilkins, B-C. Shih, P. J. P. Byrne,          |
 | R. J. Maurer, J. C. Womack, J. Dziedzic,        |
 | A. Bartok-Partay, L. LeBlanc                    |
 |                                                 |
 | Copyright (c) 2000 - 2020                       |
 |                                                 |
 |     Distributed under license from Cambridge    |
 |     Enterprise for academic use only.           |
 |                                                 |
 | Please cite                                     |
 |                                                 |
 |     "First principles methods using CASTEP"     |
 |                                                 |
 |         Zeitschrift fuer Kristallographie       |
 |           220(5-6) pp. 567-570 (2005)           |
 |                                                 |
 | S. J. Clark, M. D. Segall, C. J. Pickard,       |
 | P. J. Hasnip, M. J. Probert, K. Refson,         |
 | M. C. Payne                                     |
 |                                                 |
 |       in all publications arising from          |
 |              your use of CASTEP                 |
 |                                                 |
 +-------------------------------------------------+
 |                                                 |
 |              http://www.castep.org              |
 |                                                 |
 +-------------------------------------------------+



 Compiled for linux_epyc_gfortran on Wed, 23 Nov 2022 15:53:00 +0000
 from code version Version unavailable
 Compiler: ; Optimisation: fast
 MATHLIBS: openblas (LAPACK version 3.9.0)
 FFT Lib : fftw3 version fftw-3.3.5-sse2-avx
 Fundamental constants values: CODATA 2014

 Run started: Fri, 26 Sep 2025 10:02:00 +0100

 Atomic calculation performed for Si: 1s2 2s2 2p6 3s2 3p2

 Converged in 54 iterations to an ae energy of -7886.857 eV

   ============================================================                
   | Pseudopotential Report - Date of generation 26-09-2025   |                
   ------------------------------------------------------------                
   | Element: Si Ionic charge:  4.00 Level of theory: PBE     |                
   | Atomic Solver: Koelling-Harmon                           |                
   |                                                          |                
   |               Reference Electronic Structure             |                
   |         Orbital         Occupation         Energy        |                
   |            3s              2.000           -0.397        |                
   |            3p              2.000           -0.150        |                
   |                                                          |                
   |                 Pseudopotential Definition               |                
   |        Beta     l      e      Rc     scheme   norm       |                
   |          1      0   -0.397   1.797     qc      0         |                
   |          2      0    0.250   1.797     qc      0         |                
   |          3      1   -0.150   1.797     qc      0         |                
   |          4      1    0.250   1.797     qc      0         |                
   |          5      2    0.000   1.797     qc      0         |                
   |          6      2    0.250   1.797     qc      0         |                
   |         loc     3    0.000   1.797     pn      0         |                
   |                                                          |                
   | Augmentation charge Rinner = 1.255                       |                
   | Partial core correction Rc = 1.255                       |                
   ------------------------------------------------------------                
   | "3|1.8|5|6|7|30:31:32"                                   |                
   ------------------------------------------------------------                
   |      Author: Chris J. Pickard, Cambridge University      |                
   ============================================================                

 Pseudo atomic calculation performed for Si 3s2 3p2

 Converged in 16 iterations to a total energy of -164.6257 eV
 +-------------------------------------------------+
 |                                                 |
 |      CCC   AA    SSS  TTTTT  EEEEE  PPPP        |
 |     C     A  A  S       T    E      P   P       |
 |     C     AAAA   SS     T    EEE    PPPP        |
 |     C     A  A     S    T    E      P           |
 |      CCC  A  A  SSS     T    EEEEE  P           |
 |                                                 |
 +-------------------------------------------------+
 |                                                 |
 | Welcome to Academic Release CASTEP version 21.1 |          
 | Ab Initio Total Energy Program                  |
 |                                                 |
 | Authors:                                        |
 | M. Segall, M. Probert, C. Pickard, P. Hasnip,   |
 | S. Clark, K. Refson, J. R. Yates, M. Payne      |
 |                                                 |
 | Contributors:                                   |
 | P. Lindan, P. Haynes, J. White, V. Milman,      |
 | N. Govind, M. Gibson, P. Tulip, V. Cocula,      |
 | B. Montanari, D. Quigley, M. Glover,            |
 | L. Bernasconi, A. Perlov, M. Plummer,           |
 | E. McNellis, J. Meyer, J. Gale, D. Jochym       |
 | J. Aarons, B. Walker, R. Gillen, D. Jones       |
 | T. Green, I. J. Bush, C. J. Armstrong,          |
 | E. J. Higgins, E. L. Brown, M. S. McFly,        |
 | J. Wilkins, B-C. Shih, P. J. P. Byrne,          |
 | R. J. Maurer, J. C. Womack, J. Dziedzic,        |
 | A. Bartok-Partay, L. LeBlanc                    |
 |                                                 |
 | Copyright (c) 2000 - 2020                       |
 |                                                 |
 |     Distributed under license from Cambridge    |
 |     Enterprise for academic use only.           |
 |                                                 |
 | Please cite                                     |
 |                                                 |
 |     "First principles methods using CASTEP"     |
 |                                                 |
 |         Zeitschrift fuer Kristallographie       |
 |           220(5-6) pp. 567-570 (2005)           |
 |                                                 |
 | S. J. Clark, M. D. Segall, C. J. Pickard,       |
 | P. J. Hasnip, M. J. Probert, K. Refson,         |
 | M. C. Payne                                     |
 |                                                 |
 |       in all publications arising from          |
 |              your use of CASTEP                 |
 |                                                 |
 +-------------------------------------------------+
 |                                                 |
 |              http://www.castep.org              |
 |                                                 |
 +-------------------------------------------------+



 Compiled for linux_epyc_gfortran on Wed, 23 Nov 2022 15:53:00 +0000
 from code version Version unavailable
 Compiler: ; Optimisation: fast
 MATHLIBS: openblas (LAPACK version 3.9.0)
 FFT Lib : fftw3 version fftw-3.3.5-sse2-avx
 Fundamental constants values: CODATA 2014

 Run started: Fri, 26 Sep 2025 10:03:00 +0100
 +-------------------------------------------------+
 |                                                 |
 |      CCC   AA    SSS  TTTTT  EEEEE  PPPP        |
 |     C     A  A  S       T    E      P   P       |
 |     C     AAAA   SS     T    EEE    PPPP        |
 |     C     A  A     S    T    E      P           |
 |      CCC  A  A  SSS     T    EEEEE  P           |
 |                                                 |
 +-------------------------------------------------+
 |                                                 |
 | Welcome to Academic Release CASTEP version 21.1 |          
 | Ab Initio Total Energy Program                  |
 |                                                 |
 | Authors:                                        |
 | M. Segall, M. Probert, C. Pickard, P. Hasnip,   |
 | S. Clark, K. Refson, J. R. Yates, M. Payne      |
 |                                                 |
 | Contributors:                                   |
 | P. Lindan, P. Haynes, J. White, V. Milman,      |
 | N. Govind, M. Gibson, P. Tulip, V. Cocula,      |
 | B. Montanari, D. Quigley, M. Glover,            |
 | L. Bernasconi, A. Perlov, M. Plummer,           |
 | E. McNellis, J. Meyer, J. Gale, D. Jochym       |
 | J. Aarons, B. Walker, R. Gillen, D. Jones       |
 | T. Green, I. J. Bush, C. J. Armstrong,          |
 | E. J. Higgins, E. L. Brown, M. S. McFly,        |
 | J. Wilkins, B-C. Shih, P. J. P. Byrne,          |
 | R. J. Maurer, J. C. Womack, J. Dziedzic,        |
 | A. Bartok-Partay, L. LeBlanc                    |
 |                                                 |
 | Copyright (c) 2000 - 2020                       |
 |                                                 |
 |     Distributed under license from Cambridge    |
 |     Enterprise for academic use only.           |
 |                                                 |
 | Please cite                                     |
 |                                                 |
 |     "First principles methods using CASTEP"     |
 |                                                 |
 |         Zeitschrift fuer Kristallographie       |
 |           220(5-6) pp. 567-570 (2005)           |
 |                                                 |
 | S. J. Clark, M. D. Segall, C. J. Pickard,       |
 | P. J. Hasnip, M. J. Probert, K. Refson,         |
 | M. C. Payne                                     |
 |                                                 |
 |       in all publications arising from          |
 |              your use of CASTEP                 |
 |                                                 |
 +-------------------------------------------------+
 |                                                 |
 |              http://www.castep.org              |
 |                                                 |
 +-------------------------------------------------+



 Compiled for linux_epyc_gfortran on Wed, 23 Nov 2022 15:53:00 +0000
 from code version Version unavailable
 Compiler: ; Optimisation: fast
 MATHLIBS: openblas (LAPACK version 3.9.0)
 FFT Lib : fftw3 version fftw-3.3.5-sse2-avx
 Fundamental constants values: CODATA 2014

 Run started: Fri, 26 Sep 2025 10:05:30 +0100

 Atomic calculation performed for Si: 1s2 2s2 2p6 3s2 3p2

 Converged in 54 iterations to an ae energy of -7886.857 eV

   ============================================================                
   | Pseudopotential Report - Date of generation 26-09-2025   |                
   ------------------------------------------------------------                
   | Element: Si Ionic charge:  4.00 Level of theory: PBE     |                
   | Atomic Solver: Koelling-Harmon                           |                
   |                                                          |                
   |               Reference Electronic Structure             |                
   |         Orbital         Occupation         Energy        |                
   |            3s              2.000           -0.397        |                
   |            3p              2.000           -0.150        |                
   |                                                          |                
   |                 Pseudopotential Definition               |                
   |        Beta     l      e      Rc     scheme   norm       |                
   |          1      0   -0.397   1.797     qc      0         |                
   |          2      0    0.250   1.797     qc      0         |                
   |          3      1   -0.150   1.797     qc      0         |                
   |          4      1    0.250   1.797     qc      0         |                
   |          5      2    0.000   1.797     qc      0         |                
   |          6      2    0.250   1.797     qc      0         |                
   |         loc     3    0.000   1.797     pn      0         |                
   |                                                          |                
   | Augmentation charge Rinner = 1.255                       |                
   | Partial core correction Rc = 1.255                       |                
   ------------------------------------------------------------                
   | "3|1.8|5|6|7|30:31:32"                                   |                
   ------------------------------------------------------------                
   |      Author: Chris J. Pickard, Cambridge University      |                
   ============================================================                

 Pseudo atomic calculation performed for Si 3s2 3p2

 Converged in 16 iterations to a total energy of -164.6257 eV
 Calculation not parallelised.

 ************************************ Title ************************************
 

 ***************************** General Parameters ******************************
  
 output verbosity                               : normal  (1)
 write checkpoint data to                       : castep.check
 type of calculation                            : single point energy
 stress calculation                             : on
 density difference calculation                 : off
 electron localisation func (ELF) calculation   : off
 Hirshfeld analysis                             : off
 polarisation (Berry phase) analysis            : off
 molecular orbital projected DOS                : off
 deltaSCF calculation                           : off
 unlimited duration calculation
 timing information                             : on
 memory usage estimate                          : on
 write extra output files                       : on
 write final potential to formatted file        : off
 write final density to formatted file          : off
 write BibTeX reference list                    : on
 write OTFG pseudopotential files               : on
 write electrostatic potential file             : on
 write bands file                               : on
 checkpoint writing                             : both castep_bin and check files
  
 output         length unit                     : A
 output           mass unit                     : amu
 output           time unit                     : ps
 output         charge unit                     : e
 output           spin unit                     : hbar/2
 output         energy unit                     : eV
 output          force unit                     : eV/A
 output       velocity unit                     : A/ps
 output       pressure unit                     : GPa
 output     inv_length unit                     : 1/A
 output      frequency unit                     : cm-1
 output force constant unit                     : eV/A**2
 output         volume unit                     : A**3
 output   IR intensity unit                     : (D/A)**2/amu
 output         dipole unit                     : D
 output         efield unit                     : eV/A/e
 output        entropy unit                     : J/mol/K
 output    efield chi2 unit                     : pm/V
  
 wavefunctions paging                           : none
 random number generator seed                   : randomised (100530239)
 data distribution                              : optimal for this architecture
 optimization strategy                          : balance speed and memory

 *********************** Exchange-Correlation Parameters ***********************
  
 using functional                               : Perdew Burke Ernzerhof
 relativistic treatment                         : Koelling-Harmon
 DFT+D: Semi-empirical dispersion correction    : off

 ************************* Pseudopotential Parameters **************************
  
 pseudopotential representation                 : reciprocal space
 <beta|phi> representation                      : reciprocal space
 spin-orbit coupling                            : off

 **************************** Basis Set Parameters *****************************
  
 plane wave basis set cut-off                   :   100.0000   eV
 size of standard grid                          :     1.7500
 size of   fine   gmax                          :     8.9655   1/A
 finite basis set correction                    : automatic
 number of sample energies                      :          3
           sample  spacing                      :     5.0000   eV

 **************************** Electronic Parameters ****************************
  
 number of  electrons                           :  8.000    
 net charge of system                           :  0.000    
 treating system as non-spin-polarized
 number of bands                                :          8

 ********************* Electronic Minimization Parameters **********************
  
 Method: Treating system as metallic with density mixing treatment of electrons,
         and number of  SD  steps               :          1
         and number of  CG  steps               :          4
  
 total energy / atom convergence tol.           : 0.1000E-05   eV
 eigen-energy convergence tolerance             : 0.5000E-06   eV
 max force / atom convergence tol.              : ignored
 convergence tolerance window                   :          3   cycles
 max. number of SCF cycles                      :        100
 number of fixed-spin iterations                :         10
 smearing scheme                                : Gaussian
 smearing width                                 : 0.5000E-01   eV
 Fermi energy convergence tolerance             : 0.2721E-13   eV
 periodic dipole correction                     : NONE

 ************************** Density Mixing Parameters **************************
  
 density-mixing scheme                          : Broyden
 max. length of mixing history                  :         20
 charge density mixing amplitude                : 0.8000    
 cut-off energy for mixing                      :  100.0       eV

 *********************** Population Analysis Parameters ************************
  
 Population analysis with cutoff                :  3.000       A
 Population analysis output                     : summary and pdos components

 *******************************************************************************
  

                           -------------------------------
                                      Unit Cell
                           -------------------------------
        Real Lattice(A)                      Reciprocal Lattice(1/A)
     0.0000000     2.5500000     2.5500000       -1.231997119   1.231997119   1.231997119
     2.5500000     0.0000000     2.5500000        1.231997119  -1.231997119   1.231997119
     2.5500000     2.5500000     0.0000000        1.231997119   1.231997119  -1.231997119

                       Lattice parameters(A)       Cell Angles
                    a =      3.606245          alpha =   60.000000
                    b =      3.606245          beta  =   60.000000
                    c =      3.606245          gamma =   60.000000

                       Current cell volume =            33.162750       A**3
                                   density =             1.693798   AMU/A**3
                                           =             2.812618     g/cm^3

                           -------------------------------
                                     Cell Contents
                           -------------------------------
                         Total number of ions in cell =    2
                      Total number of species in cell =    1
                        Max number of any one species =    2

            xxxxxxxxxxxxxxxxxxxxxxxxxxxxxxxxxxxxxxxxxxxxxxxxxxxxxxxxxxxx
            x  Element    Atom        Fractional coordinates of atoms  x
            x            Number           u          v          w      x
            x----------------------------------------------------------x
            x  Si           1         0.000000   0.000000   0.000000   x 
            x  Si           2         0.250000   0.250000   0.250000   x 
            xxxxxxxxxxxxxxxxxxxxxxxxxxxxxxxxxxxxxxxxxxxxxxxxxxxxxxxxxxxx


                         No user defined ionic velocities

                           -------------------------------
                                   Details of Species
                           -------------------------------

                               Mass of species in AMU
                                    Si   28.0855000

                          Electric Quadrupole Moment (Barn)
                                    Si    1.0000000 No Isotope Defined

                          Files used for pseudopotentials:
                                    Si 3|1.8|5|6|7|30:31:32

                           -------------------------------
                              k-Points For BZ Sampling
                           -------------------------------
                       MP grid size for SCF calculation is  1  1  1
                            with an offset of   0.000  0.000  0.000
                       Number of kpoints used =             1

                           -------------------------------
                               Symmetry and Constraints
                           -------------------------------

                      Maximum deviation from symmetry =  0.00000         ANG

                      Number of symmetry operations   =           1
                      Number of ionic constraints     =           3
                      Point group of crystal =     1: C1, 1, 1
                      Space group of crystal =   227: Fd-3m, F 4d 2 3 -1d

             Set iprint > 1 for details on symmetry rotations/translations

                         Centre of mass is constrained
             Set iprint > 1 for details of linear ionic constraints

                         Number of cell constraints= 0
                         Cell constraints are:  1 2 3 4 5 6

                         External pressure/stress (GPa)
                          0.00000   0.00000   0.00000
                                    0.00000   0.00000
                                              0.00000
  
+---------------- MEMORY AND SCRATCH DISK ESTIMATES PER PROCESS --------------+
|                                                     Memory          Disk    |
| Baseline code, static data and system overhead      708.0 MB         0.0 MB |
| BLAS internal memory storage                          0.0 MB         0.0 MB |
| Model and support data                               80.9 MB         4.9 MB |
| Electronic energy minimisation requirements           0.4 MB         0.0 MB |
| Force calculation requirements                        0.2 MB         0.0 MB |
| Stress calculation requirements                       0.2 MB         0.0 MB |
|                                               ----------------------------- |
| Approx. total storage required per process          789.2 MB         4.9 MB |
|                                                                             |
| Requirements will fluctuate during execution and may exceed these estimates |
+-----------------------------------------------------------------------------+
Calculating finite basis set correction with  3 cut-off energies.
Finite basis spacing too small - increasing from    5.000 eV to   15.692 eV.
Calculating total energy with cut-off of   68.616 eV.
------------------------------------------------------------------------ <-- SCF
SCF loop      Energy           Fermi           Energy gain       Timer   <-- SCF
                               energy          per atom          (sec)   <-- SCF
------------------------------------------------------------------------ <-- SCF
Initial  -6.71443440E+001  0.00000000E+000                         3.31  <-- SCF
      1  -2.95307974E+002  1.03899232E+001   1.14081815E+002       3.31  <-- SCF
      2  -3.18643682E+002  7.57529940E+000   1.16678540E+001       3.31  <-- SCF
      3  -3.22111829E+002  8.71719023E+000   1.73407362E+000       3.31  <-- SCF
      4  -3.20964244E+002  9.30888611E+000  -5.73792677E-001       3.32  <-- SCF
      5  -3.20883415E+002  9.69591040E+000  -4.04147224E-002       3.32  <-- SCF
      6  -3.20888276E+002  9.70226496E+000   2.43089295E-003       3.32  <-- SCF
      7  -3.20889275E+002  9.70337937E+000   4.99197011E-004       3.33  <-- SCF
      8  -3.20889640E+002  9.70511737E+000   1.82676954E-004       3.33  <-- SCF
      9  -3.20889676E+002  9.70561488E+000   1.79453966E-005       3.33  <-- SCF
     10  -3.20889676E+002  9.70559687E+000   4.50488291E-008       3.34  <-- SCF
     11  -3.20889676E+002  9.70556957E+000   2.16782368E-009       3.34  <-- SCF
------------------------------------------------------------------------ <-- SCF
 
Final energy, E             =  -320.8896760488     eV
Final free energy (E-TS)    =  -320.8896760488     eV
(energies not corrected for finite basis set)
 
NB est. 0K energy (E-0.5TS)      =  -320.8896760488     eV
 
Calculating total energy with cut-off of   84.308 eV.
------------------------------------------------------------------------ <-- SCF
SCF loop      Energy           Fermi           Energy gain       Timer   <-- SCF
                               energy          per atom          (sec)   <-- SCF
------------------------------------------------------------------------ <-- SCF
Initial  -3.20889676E+002  0.00000000E+000                         3.36  <-- SCF
      1  -3.21732804E+002  9.45884524E+000   4.21563794E-001       3.37  <-- SCF
      2  -3.21733170E+002  9.45874035E+000   1.83290892E-004       3.37  <-- SCF
      3  -3.21738150E+002  9.48858394E+000   2.48967930E-003       3.37  <-- SCF
      4  -3.21737039E+002  9.50860100E+000  -5.55423569E-004       3.38  <-- SCF
      5  -3.21737064E+002  9.50838742E+000   1.24946096E-005       3.38  <-- SCF
      6  -3.21737069E+002  9.50851123E+000   2.80211897E-006       3.38  <-- SCF
      7  -3.21737070E+002  9.50855032E+000   1.04386888E-007       3.39  <-- SCF
      8  -3.21737070E+002  9.50855132E+000   3.94672680E-010       3.39  <-- SCF
------------------------------------------------------------------------ <-- SCF
 
Final energy, E             =  -321.7370695347     eV
Final free energy (E-TS)    =  -321.7370695347     eV
(energies not corrected for finite basis set)
 
NB est. 0K energy (E-0.5TS)      =  -321.7370695347     eV
 
Calculating total energy with cut-off of  100.000 eV.
------------------------------------------------------------------------ <-- SCF
SCF loop      Energy           Fermi           Energy gain       Timer   <-- SCF
                               energy          per atom          (sec)   <-- SCF
------------------------------------------------------------------------ <-- SCF
Initial  -3.21737070E+002  0.00000000E+000                         3.39  <-- SCF
      1  -3.21795979E+002  9.50654976E+000   2.94549112E-002       3.40  <-- SCF
      2  -3.21795987E+002  9.50654934E+000   3.89758222E-006       3.40  <-- SCF
      3  -3.21797344E+002  9.50341209E+000   6.78304558E-004       3.40  <-- SCF
      4  -3.21797533E+002  9.50217917E+000   9.45552230E-005       3.41  <-- SCF
      5  -3.21797533E+002  9.50214965E+000   1.93919823E-007       3.41  <-- SCF
      6  -3.21797533E+002  9.50215178E+000   5.24699564E-009       3.41  <-- SCF
------------------------------------------------------------------------ <-- SCF
 
Final energy, E             =  -321.7975332701     eV
Final free energy (E-TS)    =  -321.7975332701     eV
(energies not corrected for finite basis set)
 
NB est. 0K energy (E-0.5TS)      =  -321.7975332701     eV
 
 For future reference: finite basis dEtot/dlog(Ecut) =      -5.861662eV
 Total energy corrected for finite basis set =    -322.372520 eV

 ************************** Forces **************************
 *                                                          *
 *               Cartesian components (eV/A)                *
 * -------------------------------------------------------- *
 *                         x            y            z      *
 *                                                          *
 * Si              1     -0.51637     -0.51637     -0.51637 *
 * Si              2      0.51637      0.51637      0.51637 *
 *                                                          *
 ************************************************************

 ***************** Stress Tensor *****************
 *                                               *
 *          Cartesian components (GPa)           *
 * --------------------------------------------- *
 *             x             y             z     *
 *                                               *
 *  x   -130.706016    -13.192358    -13.192358  *
 *  y    -13.192358   -130.706016    -13.192358  *
 *  z    -13.192358    -13.192358   -130.706016  *
 *                                               *
 *  Pressure:  130.7060                          *
 *                                               *
 *************************************************

 Pseudo atomic calculation performed for Si 3s2 3p2

 Converged in 16 iterations to a total energy of -164.6257 eV
Charge spilling parameter for spin component 1 = 3.36%

            Orbital Populations       
     Ion    Atom   Orbital             Charge
  -------------------------------------------
     Si     1      S                    1.000
     Si     1      Px                   1.000
     Si     1      Py                   1.000
     Si     1      Pz                   1.000
     Si     2      S                    1.000
     Si     2      Px                   1.000
     Si     2      Py                   1.000
     Si     2      Pz                   1.000
  -------------------------------------------
                           Total:       8.000
  -------------------------------------------

     Atomic Populations (Mulliken)
     -----------------------------
Species          Ion     s       p       d       f      Total   Charge (e)
==========================================================================
  Si              1     1.000   3.000   0.000   0.000   4.000    -0.000
  Si              2     1.000   3.000   0.000   0.000   4.000     0.000
==========================================================================

                 Bond                   Population      Length (A)
======================================================================
              Si 1 -- Si 2                   2.00        2.20836
======================================================================


Writing analysis data to castep.castep_bin

Writing model to castep.check
 
 A BibTeX formatted list of references used in this run has been written to 
 castep.bib
 
Initialisation time =      3.16 s
Calculation time    =      0.36 s
Finalisation time   =      0.07 s
Total time          =      3.58 s
Peak Memory Use     = 1106012 kB
