5
Lattice="4.305297245283376 0.0 1.1625217649309496 0.8909299950637738 4.280333028546382 1.2880608262677014 0.0 0.0 4.72729418447685" Properties=species:S:1:pos:R:3:forces:R:3:magmoms:R:1 energy=-2514.1464323047767 free_energy=-2514.1464323047767 stress="0.007359951443438806 0.00299778461362621 0.0052683883960144545 0.00299778461362621 0.0026837747092279974 0.0037396559667073666 0.0052683883960144545 0.0037396559667073666 0.0063628322733322" pbc="T T T"
O        4.50768846       1.33619342       2.92160180      -0.17530373      -0.10837200      -0.14322382      -0.20730000
O        1.82101029       2.69224629       4.07320896       0.10518717       0.08744862       0.14952482      -0.00050000
O        3.74062566       0.79659710       2.12389339       0.17508853       0.10835117       0.14262192      -0.20730000
C        2.41609781       3.20583755       4.94720316      -0.00019309       0.00017149      -0.00040289       0.00000000
O        3.01116349       3.71950374       5.82116302      -0.10477888      -0.08759928      -0.14852003      -0.00060000
8
Lattice="4.6056051052883795 0.0 2.029353509877331 1.811973285238557 4.241415722640877 2.024043819726518 0.0 0.0 6.196473833460105" Properties=species:S:1:pos:R:3:forces:R:3:magmoms:R:1 energy=-3894.545303604514 free_energy=-3894.545303604514 stress="0.02617208282126037 -0.0035165436662139 0.01209121763456158 -0.0035165436662139 0.02923413846795054 0.007873201550335298 0.01209121763456158 0.007873201550335298 0.004317177106667822" pbc="T T T"
C        3.52254256       3.39084463       3.80256102       0.02988496      -0.02485177      -0.00790871      -0.00000000
C        4.92641658       1.26664697       6.90007421      -0.02382616       0.01373226       0.01277735       0.00000000
O        5.38937929       2.34182500       7.41231336      -0.36160612      -0.84502596      -0.40126976      -0.00040000
O        4.68875284       3.39517442       4.32552071      -0.92541382      -0.00182266      -0.41182953       0.00000000
O        3.75714279       1.25867136       6.38448820       0.92343690       0.00715384       0.40076119       0.00030000
O        3.06303694       2.31729625       3.28347615       0.35900468       0.84653006       0.40832589       0.00010000
O        1.02422967       0.20052108       4.87576818      -0.54057470       0.82168523      -0.00692809       0.00010000
O        1.00749081       0.21551202       1.77354824       0.53909426      -0.81740075       0.00607192      -0.00020000
4
Lattice="3.5430015722830794 0.0 1.3334437401239645 -0.19990356019914338 3.755621037089823 1.4851449742235037 0.0 0.0 4.927789704843149" Properties=species:S:1:pos:R:3:forces:R:3:magmoms:R:1 energy=-1947.2726323461177 free_energy=-1947.2726323461177 stress="0.018799277171208773 -0.009603010497371065 -0.01168631012625862 -0.009603010497371065 0.02233969293541786 -0.010452306291430558 -0.01168631012625862 -0.010452306291430558 0.022246040858667517" pbc="T T T"
O        2.62466719       0.38683228       3.18016181      -0.08298467       0.86162243      -0.71473377       0.00010000
O       -0.10657170       1.28243135       4.94944308      -0.81817131       0.06298020       0.80407420       0.00020000
C        2.57548477       1.32559350       2.30699142       0.40906354      -0.33314401      -0.03192410       0.00000000
O        1.72125422       2.26331329       2.38182181       0.49209243      -0.59145863      -0.05741608      -0.00030000
