 +-------------------------------------------------+
 |                                                 |
 |      CCC   AA    SSS  TTTTT  EEEEE  PPPP        |
 |     C     A  A  S       T    E      P   P       |
 |     C     AAAA   SS     T    EEE    PPPP        |
 |     C     A  A     S    T    E      P           |
 |      CCC  A  A  SSS     T    EEEEE  P           |
 |                                                 |
 +-------------------------------------------------+
 |                                                 |
 | Welcome to Academic Release CASTEP version 21.1 |          
 | Ab Initio Total Energy Program                  |
 |                                                 |
 | Authors:                                        |
 | M. Segall, M. Probert, C. Pickard, P. Hasnip,   |
 | S. Clark, K. Refson, J. R. Yates, M. Payne      |
 |                                                 |
 | Contributors:                                   |
 | P. Lindan, P. Haynes, J. White, V. Milman,      |
 | N. Govind, M. Gibson, P. Tulip, V. Cocula,      |
 | B. Montanari, D. Quigley, M. Glover,            |
 | L. Bernasconi, A. Perlov, M. Plummer,           |
 | E. McNellis, J. Meyer, J. Gale, D. Jochym       |
 | J. Aarons, B. Walker, R. Gillen, D. Jones       |
 | T. Green, I. J. Bush, C. J. Armstrong,          |
 | E. J. Higgins, E. L. Brown, M. S. McFly,        |
 | J. Wilkins, B-C. Shih, P. J. P. Byrne,          |
 | R. J. Maurer, J. C. Womack, J. Dziedzic,        |
 | A. Bartok-Partay, L. LeBlanc                    |
 |                                                 |
 | Copyright (c) 2000 - 2020                       |
 |                                                 |
 |     Distributed under license from Cambridge    |
 |     Enterprise for academic use only.           |
 |                                                 |
 | Please cite                                     |
 |                                                 |
 |     "First principles methods using CASTEP"     |
 |                                                 |
 |         Zeitschrift fuer Kristallographie       |
 |           220(5-6) pp. 567-570 (2005)           |
 |                                                 |
 | S. J. Clark, M. D. Segall, C. J. Pickard,       |
 | P. J. Hasnip, M. J. Probert, K. Refson,         |
 | M. C. Payne                                     |
 |                                                 |
 |       in all publications arising from          |
 |              your use of CASTEP                 |
 |                                                 |
 +-------------------------------------------------+
 |                                                 |
 |              http://www.castep.org              |
 |                                                 |
 +-------------------------------------------------+



 Compiled for linux_epyc_gfortran on Wed, 23 Nov 2022 15:53:00 +0000
 from code version Version unavailable
 Compiler: ; Optimisation: fast
 MATHLIBS: openblas (LAPACK version 3.9.0)
 FFT Lib : fftw3 version fftw-3.3.5-sse2-avx
 Fundamental constants values: CODATA 2014

 Run started: Thu, 02 Oct 2025 15:57:08 +0100

 Atomic calculation performed for Si: 1s2 2s2 2p6 3s2 3p2

 Converged in 54 iterations to an ae energy of -7886.857 eV

   ============================================================                
   | Pseudopotential Report - Date of generation  2-10-2025   |                
   ------------------------------------------------------------                
   | Element: Si Ionic charge:  4.00 Level of theory: PBE     |                
   | Atomic Solver: Koelling-Harmon                           |                
   |                                                          |                
   |               Reference Electronic Structure             |                
   |         Orbital         Occupation         Energy        |                
   |            3s              2.000           -0.397        |                
   |            3p              2.000           -0.150        |                
   |                                                          |                
   |                 Pseudopotential Definition               |                
   |        Beta     l      e      Rc     scheme   norm       |                
   |          1      0   -0.397   1.797     qc      0         |                
   |          2      0    0.250   1.797     qc      0         |                
   |          3      1   -0.150   1.797     qc      0         |                
   |          4      1    0.250   1.797     qc      0         |                
   |          5      2    0.000   1.797     qc      0         |                
   |          6      2    0.250   1.797     qc      0         |                
   |         loc     3    0.000   1.797     pn      0         |                
   |                                                          |                
   | Augmentation charge Rinner = 1.255                       |                
   | Partial core correction Rc = 1.255                       |                
   ------------------------------------------------------------                
   | "3|1.8|5|6|7|30:31:32"                                   |                
   ------------------------------------------------------------                
   |      Author: Chris J. Pickard, Cambridge University      |                
   ============================================================                

 Pseudo atomic calculation performed for Si 3s2 3p2

 Converged in 11 iterations to a total energy of -165.0683 eV
 Calculation parallelised over 64 processes.
 Data is distributed by k-point(64-way)

 ************************************ Title ************************************
 

 ***************************** General Parameters ******************************
  
 output verbosity                               : normal  (1)
 write checkpoint data to                       : castep.check
 type of calculation                            : geometry optimization
 stress calculation                             : on
 density difference calculation                 : off
 electron localisation func (ELF) calculation   : off
 Hirshfeld analysis                             : off
 polarisation (Berry phase) analysis            : off
 molecular orbital projected DOS                : off
 deltaSCF calculation                           : off
 unlimited duration calculation
 timing information                             : on
 memory usage estimate                          : on
 write extra output files                       : on
 write final potential to formatted file        : off
 write final density to formatted file          : off
 write BibTeX reference list                    : on
 write OTFG pseudopotential files               : on
 write electrostatic potential file             : on
 write bands file                               : on
 checkpoint writing                             : both castep_bin and check files
  
 output         length unit                     : A
 output           mass unit                     : amu
 output           time unit                     : ps
 output         charge unit                     : e
 output           spin unit                     : hbar/2
 output         energy unit                     : eV
 output          force unit                     : eV/A
 output       velocity unit                     : A/ps
 output       pressure unit                     : GPa
 output     inv_length unit                     : 1/A
 output      frequency unit                     : cm-1
 output force constant unit                     : eV/A**2
 output         volume unit                     : A**3
 output   IR intensity unit                     : (D/A)**2/amu
 output         dipole unit                     : D
 output         efield unit                     : eV/A/e
 output        entropy unit                     : J/mol/K
 output    efield chi2 unit                     : pm/V
  
 wavefunctions paging                           : none
 random number generator seed                   : randomised (155708757)
 data distribution                              : optimal for this architecture
 optimization strategy                          : balance speed and memory

 *********************** Exchange-Correlation Parameters ***********************
  
 using functional                               : Perdew Burke Ernzerhof
 relativistic treatment                         : Koelling-Harmon
 DFT+D: Semi-empirical dispersion correction    : off

 ************************* Pseudopotential Parameters **************************
  
 pseudopotential representation                 : reciprocal space
 <beta|phi> representation                      : reciprocal space
 spin-orbit coupling                            : off

 **************************** Basis Set Parameters *****************************
  
 plane wave basis set cut-off                   :   600.0000   eV
 size of standard grid                          :     1.7500
 size of   fine   gmax                          :    21.9610   1/A
 finite basis set correction                    : automatic
 number of sample energies                      :          3
           sample  spacing                      :     5.0000   eV

 **************************** Electronic Parameters ****************************
  
 number of  electrons                           :  8.000    
 net charge of system                           :  0.000    
 treating system as non-spin-polarized
 number of bands                                :          8

 ********************* Electronic Minimization Parameters **********************
  
 Method: Treating system as metallic with density mixing treatment of electrons,
         and number of  SD  steps               :          1
         and number of  CG  steps               :          4
  
 total energy / atom convergence tol.           : 0.1000E-04   eV
 eigen-energy convergence tolerance             : 0.1000E-05   eV
 max force / atom convergence tol.              : ignored
 convergence tolerance window                   :          3   cycles
 max. number of SCF cycles                      :        100
 number of fixed-spin iterations                :         10
 smearing scheme                                : Gaussian
 smearing width                                 : 0.5000E-01   eV
 Fermi energy convergence tolerance             : 0.2721E-13   eV
 periodic dipole correction                     : NONE

 ************************** Density Mixing Parameters **************************
  
 density-mixing scheme                          : Broyden
 max. length of mixing history                  :         20
 charge density mixing amplitude                : 0.8000    
 cut-off energy for mixing                      :  600.0       eV

 *********************** Population Analysis Parameters ************************
  
 Population analysis with cutoff                :  3.000       A
 Population analysis output                     : summary and pdos components

 ********************** Geometry Optimization Parameters ***********************
  
 optimization method                            : LBFGS
 max. no. of LBFGS updates                      : unbounded
 variable cell method                           : fixed basis quality
 max. number of steps                           :         30
 estimated bulk modulus                         :  500.0       GPa
 estimated <frequency>                          :  1668.       cm-1
 geom line minimiser                            : on
 with line minimiser tolerance                  :     0.4000
 total energy convergence tolerance             : 0.1000E-06   eV/atom
        max ionic |force| tolerance             : 0.1000E-04   eV/A
 max ionic |displacement| tolerance             : 0.1000E-02   A
   max |stress component| tolerance             : 0.1000       GPa
 convergence tolerance window                   :          2   steps
 backup results every                           :          5   steps
 write geom trajectory file                     : on

 *******************************************************************************
  

                           -------------------------------
                                      Unit Cell
                           -------------------------------
        Real Lattice(A)                      Reciprocal Lattice(1/A)
     0.0000000     2.6795350     2.7336730       -1.148990655   1.148990655   1.172204808
     2.7342200    -0.0546840     2.7336730        1.148990655  -1.148990655   1.126235901
     2.7342200     2.7342200     0.0000000        1.148990235   1.148990655  -1.126235901

                       Lattice parameters(A)       Cell Angles
                    a =      3.827908          alpha =   60.659413
                    b =      3.866771          beta  =   60.331918
                    c =      3.866771          gamma =   60.331908

                       Current cell volume =            40.873647       A**3
                                   density =             1.374260   AMU/A**3
                                           =             2.282012     g/cm^3

                           -------------------------------
                                     Cell Contents
                           -------------------------------
                         Total number of ions in cell =    2
                      Total number of species in cell =    1
                        Max number of any one species =    2

            xxxxxxxxxxxxxxxxxxxxxxxxxxxxxxxxxxxxxxxxxxxxxxxxxxxxxxxxxxxx
            x  Element    Atom        Fractional coordinates of atoms  x
            x            Number           u          v          w      x
            x----------------------------------------------------------x
            x  Si           1         0.000000   0.000000   0.000000   x 
            x  Si           2         0.250000   0.250000   0.250000   x 
            xxxxxxxxxxxxxxxxxxxxxxxxxxxxxxxxxxxxxxxxxxxxxxxxxxxxxxxxxxxx


                         No user defined ionic velocities

                           -------------------------------
                                   Details of Species
                           -------------------------------

                               Mass of species in AMU
                                    Si   28.0855000

                          Electric Quadrupole Moment (Barn)
                                    Si    1.0000000 No Isotope Defined

                          Files used for pseudopotentials:
                                    Si 3|1.8|5|6|7|30:31:32

                           -------------------------------
                              k-Points For BZ Sampling
                           -------------------------------
                       MP grid size for SCF calculation is 11 11 11
                            with an offset of   0.000  0.000  0.000
                       Number of kpoints used =           216

                           -------------------------------
                               Symmetry and Constraints
                           -------------------------------

                      Maximum deviation from symmetry = 0.100000E-05     ANG

 !-----------------------------------------------------------------------------!
 !                                                                             !
 !                     * * *      W A R N I N G     * * *                      !
 !                                                                             !
 !   Atomic positions are slightly inconsistent with symmetry operations,      !
 !   (although the discrepancy is lower than value of SYMMETRY_TOL).           !
  !   In severe cases this could lead to seriously inaccurate results.         !
 !                                                                             !
 !   It is recommended that symmetries are satisfied to a tolerance of 1e-8au  !
 !   or better. Consider one or more of the following:                         !
 !     - Adjust input so that atomic positions and symmetry are consistent.    !
 !     - Use SNAP_TO_SYMMETRY keyword in the cell file to adjust co-ordinates. !
 !     - Reduce the value of SYMMETRY_TOL in the cell file.                    !
 !     - Remove incorrect symmetry operations from .cell file.                 !
 !                                                                             !
 !-----------------------------------------------------------------------------!


                      Number of symmetry operations   =           8
                      Number of ionic constraints     =           3
                      Point group of crystal =     8: D2h, mmm, 2/m 2/m 2/m
                      Space group of crystal =    74: Imma, -I 2b 2

             Set iprint > 1 for details on symmetry rotations/translations

                         Centre of mass is constrained
             Set iprint > 1 for details of linear ionic constraints

                         Number of cell constraints= 6
                         Cell constraints are:  0 0 0 0 0 0

                         External pressure/stress (GPa)
                          0.00000   0.00000   0.00000
                                    0.00000   0.00000
                                              0.00000
  
+---------------- MEMORY AND SCRATCH DISK ESTIMATES PER PROCESS --------------+
|                                                     Memory          Disk    |
| Baseline code, static data and system overhead      679.0 MB         0.0 MB |
| BLAS internal memory storage                          0.0 MB         0.0 MB |
| Model and support data                               88.1 MB        65.7 MB |
| Electronic energy minimisation requirements           7.1 MB         0.0 MB |
| Force calculation requirements                        3.5 MB         0.0 MB |
| Stress calculation requirements                       3.9 MB         0.0 MB |
|                                               ----------------------------- |
| Approx. total storage required per process          774.1 MB        65.7 MB |
|                                                                             |
| Requirements will fluctuate during execution and may exceed these estimates |
+-----------------------------------------------------------------------------+
Calculating finite basis set correction with  3 cut-off energies.
Calculating total energy with cut-off of  590.000 eV.
Calculating approximate eigenstates for fixed initial Hamiltonian
Cut-off for approx. calculation is   89.988 eV
Improving approx. states at cut-off of  294.995 eV
Resetting cut-off to  589.990 eV
------------------------------------------------------------------------ <-- SCF
SCF loop      Energy           Fermi           Energy gain       Timer   <-- SCF
                               energy          per atom          (sec)   <-- SCF
------------------------------------------------------------------------ <-- SCF
Initial  -3.37294911E+002  0.00000000E+000                         4.69  <-- SCF
      1  -3.41075030E+002  4.37448118E+000   1.89005973E+000       4.77  <-- SCF
      2  -3.41075582E+002  4.37443216E+000   2.75826465E-004       4.91  <-- SCF
      3  -3.40969857E+002  4.47224257E+000  -5.28622197E-002       5.03  <-- SCF
      4  -3.40964997E+002  4.54747758E+000  -2.43001481E-003       5.17  <-- SCF
      5  -3.40966060E+002  4.56147106E+000   5.31467576E-004       5.30  <-- SCF
      6  -3.40966315E+002  4.57219470E+000   1.27191382E-004       5.43  <-- SCF
      7  -3.40966316E+002  4.57245546E+000   4.97385460E-007       5.54  <-- SCF
      8  -3.40966316E+002  4.57250283E+000   7.90980122E-008       5.65  <-- SCF
------------------------------------------------------------------------ <-- SCF
 
Final energy, E             =  -340.9663159208     eV
Final free energy (E-TS)    =  -340.9663159208     eV
(energies not corrected for finite basis set)
 
NB est. 0K energy (E-0.5TS)      =  -340.9663159208     eV
 
Calculating total energy with cut-off of  595.000 eV.
------------------------------------------------------------------------ <-- SCF
SCF loop      Energy           Fermi           Energy gain       Timer   <-- SCF
                               energy          per atom          (sec)   <-- SCF
------------------------------------------------------------------------ <-- SCF
Initial  -3.40966357E+002  0.00000000E+000                         5.79  <-- SCF
      1  -3.40966320E+002  4.57252794E+000  -1.89422494E-005       5.84  <-- SCF
      2  -3.40966320E+002  4.57252794E+000   4.59275257E-009       5.94  <-- SCF
      3  -3.40966320E+002  4.57252684E+000   6.82230276E-010       6.04  <-- SCF
      4  -3.40966320E+002  4.57252657E+000   4.07917054E-010       6.15  <-- SCF
------------------------------------------------------------------------ <-- SCF
 
Final energy, E             =  -340.9663195419     eV
Final free energy (E-TS)    =  -340.9663195419     eV
(energies not corrected for finite basis set)
 
NB est. 0K energy (E-0.5TS)      =  -340.9663195419     eV
 
Calculating total energy with cut-off of  600.000 eV.
------------------------------------------------------------------------ <-- SCF
SCF loop      Energy           Fermi           Energy gain       Timer   <-- SCF
                               energy          per atom          (sec)   <-- SCF
------------------------------------------------------------------------ <-- SCF
Initial  -3.40966361E+002  0.00000000E+000                         6.29  <-- SCF
      1  -3.40966323E+002  4.57252535E+000  -1.89163292E-005       6.35  <-- SCF
      2  -3.40966323E+002  4.57252535E+000   8.74998758E-010       6.45  <-- SCF
      3  -3.40966323E+002  4.57252530E+000  -5.14790452E-010       6.55  <-- SCF
      4  -3.40966323E+002  4.57252520E+000  -9.58041950E-011       6.66  <-- SCF
------------------------------------------------------------------------ <-- SCF
 
Final energy, E             =  -340.9663232013     eV
Final free energy (E-TS)    =  -340.9663232013     eV
(energies not corrected for finite basis set)
 
NB est. 0K energy (E-0.5TS)      =  -340.9663232013     eV
 
 For future reference: finite basis dEtot/dlog(Ecut) =      -0.000435eV
 Total energy corrected for finite basis set =    -340.966323 eV

WARNING - fixed cell calculation with finite basis correction ON
        - consider setting FINITE_BASIS_CORR=NONE
        - this will give a rigid shift in energies only.
     NB - this is intended for variable cell calculations with FIXED_NPW=FALSE
 
+---------------- MEMORY AND SCRATCH DISK ESTIMATES PER PROCESS --------------+
|                                                     Memory          Disk    |
| Model and support data                               97.4 MB        65.7 MB |
| Electronic energy minimisation requirements           7.1 MB         0.0 MB |
| Geometry minimisation requirements                    8.3 MB         0.0 MB |
|                                               ----------------------------- |
| Approx. total storage required per process          112.8 MB        65.7 MB |
|                                                                             |
| Requirements will fluctuate during execution and may exceed these estimates |
+-----------------------------------------------------------------------------+
 

 ******************************** Symmetrised Forces ********************************
 *                                                                                  *
 *                           Cartesian components (eV/A)                            *
 * -------------------------------------------------------------------------------- *
 *                         x                    y                    z              *
 *                                                                                  *
 * Si              1     -0.18147              0.00000              0.00000         *
 * Si              2      0.18147              0.00000             -0.00000         *
 *                                                                                  *
 ************************************************************************************
 LBFGS: finished iteration     0 with enthalpy= -3.40966323E+002 eV
  
 +-----------+-----------------+-----------------+------------+-----+ <-- LBFGS
 | Parameter |      value      |    tolerance    |    units   | OK? | <-- LBFGS
 +-----------+-----------------+-----------------+------------+-----+ <-- LBFGS
 |  dE/ion   |   0.000000E+000 |   1.000000E-007 |         eV | No  | <-- LBFGS
 |  |F|max   |   1.814749E-001 |   1.000000E-005 |       eV/A | No  | <-- LBFGS
 |  |dR|max  |   0.000000E+000 |   1.000000E-003 |          A | No  | <-- LBFGS
 +-----------+-----------------+-----------------+------------+-----+ <-- LBFGS
  

================================================================================
 Starting LBFGS iteration          1 ...
================================================================================
  
 +------------+-------------+-------------+-----------------+ <-- min LBFGS
 |    Step    |   lambda    |   F.delta'  |    enthalpy     | <-- min LBFGS
 +------------+-------------+-------------+-----------------+ <-- min LBFGS
 |  previous  |    0.000000 |    0.029777 |     -340.966323 | <-- min LBFGS
 +------------+-------------+-------------+-----------------+ <-- min LBFGS
  

--------------------------------------------------------------------------------
 LBFGS: starting iteration         1 with trial guess (lambda=  1.000000)
--------------------------------------------------------------------------------

                           -------------------------------
                                     Cell Contents
                           -------------------------------

            xxxxxxxxxxxxxxxxxxxxxxxxxxxxxxxxxxxxxxxxxxxxxxxxxxxxxxxxxxxxxxxxx
            x  Element         Atom        Fractional coordinates of atoms  x
            x                 Number           u          v          w      x
            x---------------------------------------------------------------x
            x  Si                1         0.000116  -0.000116  -0.000116   x
            x  Si                2         0.249884   0.250115   0.250116   x
            xxxxxxxxxxxxxxxxxxxxxxxxxxxxxxxxxxxxxxxxxxxxxxxxxxxxxxxxxxxxxxxxx


------------------------------------------------------------------------ <-- SCF
SCF loop      Energy           Fermi           Energy gain       Timer   <-- SCF
                               energy          per atom          (sec)   <-- SCF
------------------------------------------------------------------------ <-- SCF
Initial  -3.40965855E+002  0.00000000E+000                         6.88  <-- SCF
      1  -3.40966542E+002  4.57067277E+000   3.43413108E-004       6.97  <-- SCF
      2  -3.40966542E+002  4.57067274E+000   1.18747028E-007       7.07  <-- SCF
      3  -3.40966542E+002  4.57074055E+000   3.10005602E-008       7.18  <-- SCF
      4  -3.40966542E+002  4.57074528E+000   1.70836233E-008       7.28  <-- SCF
------------------------------------------------------------------------ <-- SCF
 
Final energy, E             =  -340.9665422124     eV
Final free energy (E-TS)    =  -340.9665422124     eV
(energies not corrected for finite basis set)
 
NB est. 0K energy (E-0.5TS)      =  -340.9665422124     eV
 

 ******************************** Symmetrised Forces ********************************
 *                                                                                  *
 *                           Cartesian components (eV/A)                            *
 * -------------------------------------------------------------------------------- *
 *                         x                    y                    z              *
 *                                                                                  *
 * Si              1     -0.16481              0.00000              0.00000         *
 * Si              2      0.16481              0.00000             -0.00000         *
 *                                                                                  *
 ************************************************************************************
  
 +------------+-------------+-------------+-----------------+ <-- min LBFGS
 |    Step    |   lambda    |   F.delta'  |    enthalpy     | <-- min LBFGS
 +------------+-------------+-------------+-----------------+ <-- min LBFGS
 |  previous  |    0.000000 |    0.029777 |     -340.966323 | <-- min LBFGS
 | trial step |    1.000000 |    0.027042 |     -340.966542 | <-- min LBFGS
 +------------+-------------+-------------+-----------------+ <-- min LBFGS
  

--------------------------------------------------------------------------------
 LBFGS: improving iteration         1 with line minimization (lambda= 10.886386)
--------------------------------------------------------------------------------

                           -------------------------------
                                     Cell Contents
                           -------------------------------

            xxxxxxxxxxxxxxxxxxxxxxxxxxxxxxxxxxxxxxxxxxxxxxxxxxxxxxxxxxxxxxxxx
            x  Element         Atom        Fractional coordinates of atoms  x
            x                 Number           u          v          w      x
            x---------------------------------------------------------------x
            x  Si                1         0.001258  -0.001258  -0.001258   x
            x  Si                2         0.248742   0.251257   0.251258   x
            xxxxxxxxxxxxxxxxxxxxxxxxxxxxxxxxxxxxxxxxxxxxxxxxxxxxxxxxxxxxxxxxx


------------------------------------------------------------------------ <-- SCF
SCF loop      Energy           Fermi           Energy gain       Timer   <-- SCF
                               energy          per atom          (sec)   <-- SCF
------------------------------------------------------------------------ <-- SCF
Initial  -3.40962214E+002  0.00000000E+000                         7.49  <-- SCF
      1  -3.40967553E+002  4.55666266E+000   2.66949009E-003       7.57  <-- SCF
      2  -3.40967586E+002  4.55665827E+000   1.62248506E-005       7.71  <-- SCF
      3  -3.40967585E+002  4.55645460E+000  -1.11666726E-007       7.82  <-- SCF
      4  -3.40967586E+002  4.55656291E+000   3.55679503E-007       7.92  <-- SCF
------------------------------------------------------------------------ <-- SCF
 
Final energy, E             =  -340.9675860740     eV
Final free energy (E-TS)    =  -340.9675860740     eV
(energies not corrected for finite basis set)
 
NB est. 0K energy (E-0.5TS)      =  -340.9675860740     eV
 

 ******************************** Symmetrised Forces ********************************
 *                                                                                  *
 *                           Cartesian components (eV/A)                            *
 * -------------------------------------------------------------------------------- *
 *                         x                    y                    z              *
 *                                                                                  *
 * Si              1     -0.00286              0.00000              0.00000         *
 * Si              2      0.00286              0.00000             -0.00000         *
 *                                                                                  *
 ************************************************************************************
  
 +------------+-------------+-------------+-----------------+ <-- min LBFGS
 |    Step    |   lambda    |   F.delta'  |    enthalpy     | <-- min LBFGS
 +------------+-------------+-------------+-----------------+ <-- min LBFGS
 |  previous  |    0.000000 |    0.029777 |     -340.966323 | <-- min LBFGS
 | trial step |    1.000000 |    0.027042 |     -340.966542 | <-- min LBFGS
 |  line step |   10.886386 |    0.000470 |     -340.967586 | <-- min LBFGS
 +------------+-------------+-------------+-----------------+ <-- min LBFGS
  
 LBFGS: finished iteration     1 with enthalpy= -3.40967586E+002 eV
  
 +-----------+-----------------+-----------------+------------+-----+ <-- LBFGS
 | Parameter |      value      |    tolerance    |    units   | OK? | <-- LBFGS
 +-----------+-----------------+-----------------+------------+-----+ <-- LBFGS
 |  dE/ion   |   6.314363E-004 |   1.000000E-007 |         eV | No  | <-- LBFGS
 |  |F|max   |   2.863658E-003 |   1.000000E-005 |       eV/A | No  | <-- LBFGS
 |  |dR|max  |   6.876694E-003 |   1.000000E-003 |          A | No  | <-- LBFGS
 +-----------+-----------------+-----------------+------------+-----+ <-- LBFGS
  

================================================================================
 Starting LBFGS iteration          2 ...
================================================================================
  
 +------------+-------------+-------------+-----------------+ <-- min LBFGS
 |    Step    |   lambda    |   F.delta'  |    enthalpy     | <-- min LBFGS
 +------------+-------------+-------------+-----------------+ <-- min LBFGS
 |  previous  |    0.000000 |    0.000470 |     -340.967586 | <-- min LBFGS
 +------------+-------------+-------------+-----------------+ <-- min LBFGS
  

--------------------------------------------------------------------------------
 LBFGS: starting iteration         2 with trial guess (lambda=  1.000000)
--------------------------------------------------------------------------------

                           -------------------------------
                                     Cell Contents
                           -------------------------------

            xxxxxxxxxxxxxxxxxxxxxxxxxxxxxxxxxxxxxxxxxxxxxxxxxxxxxxxxxxxxxxxxx
            x  Element         Atom        Fractional coordinates of atoms  x
            x                 Number           u          v          w      x
            x---------------------------------------------------------------x
            x  Si                1         0.001278  -0.001278  -0.001278   x
            x  Si                2         0.248722   0.251278   0.251278   x
            xxxxxxxxxxxxxxxxxxxxxxxxxxxxxxxxxxxxxxxxxxxxxxxxxxxxxxxxxxxxxxxxx


------------------------------------------------------------------------ <-- SCF
SCF loop      Energy           Fermi           Energy gain       Timer   <-- SCF
                               energy          per atom          (sec)   <-- SCF
------------------------------------------------------------------------ <-- SCF
Initial  -3.40967534E+002  0.00000000E+000                         8.14  <-- SCF
      1  -3.40967586E+002  4.55634545E+000   2.60531422E-005       8.19  <-- SCF
      2  -3.40967586E+002  4.55634545E+000   2.82810407E-008       8.30  <-- SCF
      3  -3.40967586E+002  4.55636887E+000   1.25468693E-008       8.40  <-- SCF
      4  -3.40967586E+002  4.55636325E+000   4.17823749E-009       8.50  <-- SCF
------------------------------------------------------------------------ <-- SCF
 
Final energy, E             =  -340.9675862745     eV
Final free energy (E-TS)    =  -340.9675862745     eV
(energies not corrected for finite basis set)
 
NB est. 0K energy (E-0.5TS)      =  -340.9675862745     eV
 

 ******************************** Symmetrised Forces ********************************
 *                                                                                  *
 *                           Cartesian components (eV/A)                            *
 * -------------------------------------------------------------------------------- *
 *                         x                    y                    z              *
 *                                                                                  *
 * Si              1      0.00112              0.00000              0.00000         *
 * Si              2     -0.00112              0.00000              0.00000         *
 *                                                                                  *
 ************************************************************************************
  
 +------------+-------------+-------------+-----------------+ <-- min LBFGS
 |    Step    |   lambda    |   F.delta'  |    enthalpy     | <-- min LBFGS
 +------------+-------------+-------------+-----------------+ <-- min LBFGS
 |  previous  |    0.000000 |    0.000470 |     -340.967586 | <-- min LBFGS
 | trial step |    1.000000 |   -0.000184 |     -340.967586 | <-- min LBFGS
 +------------+-------------+-------------+-----------------+ <-- min LBFGS
  
 LBFGS: finished iteration     2 with enthalpy= -3.40967586E+002 eV
  
 +-----------+-----------------+-----------------+------------+-----+ <-- LBFGS
 | Parameter |      value      |    tolerance    |    units   | OK? | <-- LBFGS
 +-----------+-----------------+-----------------+------------+-----+ <-- LBFGS
 |  dE/ion   |   1.002326E-007 |   1.000000E-007 |         eV | No  | <-- LBFGS
 |  |F|max   |   1.118861E-003 |   1.000000E-005 |       eV/A | No  | <-- LBFGS
 |  |dR|max  |   1.102534E-004 |   1.000000E-003 |          A | Yes | <-- LBFGS
 +-----------+-----------------+-----------------+------------+-----+ <-- LBFGS
  

================================================================================
 Starting LBFGS iteration          3 ...
================================================================================
  
 +------------+-------------+-------------+-----------------+ <-- min LBFGS
 |    Step    |   lambda    |   F.delta'  |    enthalpy     | <-- min LBFGS
 +------------+-------------+-------------+-----------------+ <-- min LBFGS
 |  previous  |    0.000000 |    0.000184 |     -340.967586 | <-- min LBFGS
 +------------+-------------+-------------+-----------------+ <-- min LBFGS
  

--------------------------------------------------------------------------------
 LBFGS: starting iteration         3 with trial guess (lambda=  1.000000)
--------------------------------------------------------------------------------

                           -------------------------------
                                     Cell Contents
                           -------------------------------

            xxxxxxxxxxxxxxxxxxxxxxxxxxxxxxxxxxxxxxxxxxxxxxxxxxxxxxxxxxxxxxxxx
            x  Element         Atom        Fractional coordinates of atoms  x
            x                 Number           u          v          w      x
            x---------------------------------------------------------------x
            x  Si                1         0.001272  -0.001272  -0.001272   x
            x  Si                2         0.248728   0.251272   0.251272   x
            xxxxxxxxxxxxxxxxxxxxxxxxxxxxxxxxxxxxxxxxxxxxxxxxxxxxxxxxxxxxxxxxx


------------------------------------------------------------------------ <-- SCF
SCF loop      Energy           Fermi           Energy gain       Timer   <-- SCF
                               energy          per atom          (sec)   <-- SCF
------------------------------------------------------------------------ <-- SCF
Initial  -3.40967645E+002  0.00000000E+000                         8.71  <-- SCF
      1  -3.40967586E+002  4.55627348E+000  -2.93344330E-005       8.77  <-- SCF
      2  -3.40967586E+002  4.55627348E+000   1.08357348E-009       8.87  <-- SCF
      3  -3.40967586E+002  4.55627228E+000   1.77107250E-010       8.98  <-- SCF
      4  -3.40967586E+002  4.55627104E+000  -2.25734405E-011       9.08  <-- SCF
------------------------------------------------------------------------ <-- SCF
 
Final energy, E             =  -340.9675863032     eV
Final free energy (E-TS)    =  -340.9675863032     eV
(energies not corrected for finite basis set)
 
NB est. 0K energy (E-0.5TS)      =  -340.9675863032     eV
 

 ******************************** Symmetrised Forces ********************************
 *                                                                                  *
 *                           Cartesian components (eV/A)                            *
 * -------------------------------------------------------------------------------- *
 *                         x                    y                    z              *
 *                                                                                  *
 * Si              1      0.00017              0.00000              0.00000         *
 * Si              2     -0.00017              0.00000              0.00000         *
 *                                                                                  *
 ************************************************************************************
  
 +------------+-------------+-------------+-----------------+ <-- min LBFGS
 |    Step    |   lambda    |   F.delta'  |    enthalpy     | <-- min LBFGS
 +------------+-------------+-------------+-----------------+ <-- min LBFGS
 |  previous  |    0.000000 |    0.000184 |     -340.967586 | <-- min LBFGS
 | trial step |    1.000000 |    0.000029 |     -340.967586 | <-- min LBFGS
 +------------+-------------+-------------+-----------------+ <-- min LBFGS
  
 LBFGS: finished iteration     3 with enthalpy= -3.40967586E+002 eV
  
 +-----------+-----------------+-----------------+------------+-----+ <-- LBFGS
 | Parameter |      value      |    tolerance    |    units   | OK? | <-- LBFGS
 +-----------+-----------------+-----------------+------------+-----+ <-- LBFGS
 |  dE/ion   |   1.434426E-008 |   1.000000E-007 |         eV | Yes | <-- LBFGS
 |  |F|max   |   1.740091E-004 |   1.000000E-005 |       eV/A | No  | <-- LBFGS
 |  |dR|max  |   3.097493E-005 |   1.000000E-003 |          A | Yes | <-- LBFGS
 +-----------+-----------------+-----------------+------------+-----+ <-- LBFGS
  

================================================================================
 Starting LBFGS iteration          4 ...
================================================================================
  
 +------------+-------------+-------------+-----------------+ <-- min LBFGS
 |    Step    |   lambda    |   F.delta'  |    enthalpy     | <-- min LBFGS
 +------------+-------------+-------------+-----------------+ <-- min LBFGS
 |  previous  |    0.000000 |    0.000029 |     -340.967586 | <-- min LBFGS
 +------------+-------------+-------------+-----------------+ <-- min LBFGS
  

--------------------------------------------------------------------------------
 LBFGS: starting iteration         4 with trial guess (lambda=  1.000000)
--------------------------------------------------------------------------------

                           -------------------------------
                                     Cell Contents
                           -------------------------------

            xxxxxxxxxxxxxxxxxxxxxxxxxxxxxxxxxxxxxxxxxxxxxxxxxxxxxxxxxxxxxxxxx
            x  Element         Atom        Fractional coordinates of atoms  x
            x                 Number           u          v          w      x
            x---------------------------------------------------------------x
            x  Si                1         0.001271  -0.001271  -0.001271   x
            x  Si                2         0.248729   0.251271   0.251271   x
            xxxxxxxxxxxxxxxxxxxxxxxxxxxxxxxxxxxxxxxxxxxxxxxxxxxxxxxxxxxxxxxxx


------------------------------------------------------------------------ <-- SCF
SCF loop      Energy           Fermi           Energy gain       Timer   <-- SCF
                               energy          per atom          (sec)   <-- SCF
------------------------------------------------------------------------ <-- SCF
Initial  -3.40967631E+002  0.00000000E+000                         9.29  <-- SCF
      1  -3.40967586E+002  4.55629108E+000  -2.21616420E-005       9.35  <-- SCF
      2  -3.40967586E+002  4.55629108E+000   8.37199121E-011       9.45  <-- SCF
      3  -3.40967586E+002  4.55629064E+000   1.15042373E-011       9.55  <-- SCF
      4  -3.40967586E+002  4.55629016E+000  -1.23018000E-011       9.65  <-- SCF
------------------------------------------------------------------------ <-- SCF
 
Final energy, E             =  -340.9675863025     eV
Final free energy (E-TS)    =  -340.9675863025     eV
(energies not corrected for finite basis set)
 
NB est. 0K energy (E-0.5TS)      =  -340.9675863025     eV
 

 ******************************** Symmetrised Forces ********************************
 *                                                                                  *
 *                           Cartesian components (eV/A)                            *
 * -------------------------------------------------------------------------------- *
 *                         x                    y                    z              *
 *                                                                                  *
 * Si              1      0.00003              0.00000              0.00000         *
 * Si              2     -0.00003              0.00000              0.00000         *
 *                                                                                  *
 ************************************************************************************
  
 +------------+-------------+-------------+-----------------+ <-- min LBFGS
 |    Step    |   lambda    |   F.delta'  |    enthalpy     | <-- min LBFGS
 +------------+-------------+-------------+-----------------+ <-- min LBFGS
 |  previous  |    0.000000 |    0.000029 |     -340.967586 | <-- min LBFGS
 | trial step |    1.000000 |  5.228E-006 |     -340.967586 | <-- min LBFGS
 +------------+-------------+-------------+-----------------+ <-- min LBFGS
  
 LBFGS: WARNING - trial step suggests complex energy landscape
                 in which simple line minimization will fail.
  
               - This is usually an indication that the forces/streses
                 are not accurate enough. Consider making the following changes:
  
                 1) Increase cutoff_energy or basis_precision
                 2) Reduce elec_energy_tol and/or elec_force_tol
                 3) Increase grid_scale
                 4) Increase fine_grid_scale
  
               - Proceeding with a bisection search to find root instead.
  

--------------------------------------------------------------------------------
 LBFGS: improving iteration         4 with bisection search (lambda=  0.500000)
--------------------------------------------------------------------------------

                           -------------------------------
                                     Cell Contents
                           -------------------------------

            xxxxxxxxxxxxxxxxxxxxxxxxxxxxxxxxxxxxxxxxxxxxxxxxxxxxxxxxxxxxxxxxx
            x  Element         Atom        Fractional coordinates of atoms  x
            x                 Number           u          v          w      x
            x---------------------------------------------------------------x
            x  Si                1         0.001271  -0.001271  -0.001271   x
            x  Si                2         0.248728   0.251271   0.251272   x
            xxxxxxxxxxxxxxxxxxxxxxxxxxxxxxxxxxxxxxxxxxxxxxxxxxxxxxxxxxxxxxxxx


------------------------------------------------------------------------ <-- SCF
SCF loop      Energy           Fermi           Energy gain       Timer   <-- SCF
                               energy          per atom          (sec)   <-- SCF
------------------------------------------------------------------------ <-- SCF
Initial  -3.40967623E+002  0.00000000E+000                         9.85  <-- SCF
      1  -3.40967586E+002  4.55628040E+000  -1.84409979E-005       9.91  <-- SCF
      2  -3.40967586E+002  4.55628040E+000   1.01749662E-011      10.01  <-- SCF
      3  -3.40967586E+002  4.55628058E+000   3.64945344E-012      10.11  <-- SCF
      4  -3.40967586E+002  4.55628075E+000   6.86387270E-012      10.22  <-- SCF
------------------------------------------------------------------------ <-- SCF
 
Final energy, E             =  -340.9675863030     eV
Final free energy (E-TS)    =  -340.9675863030     eV
(energies not corrected for finite basis set)
 
NB est. 0K energy (E-0.5TS)      =  -340.9675863030     eV
 

 ******************************** Symmetrised Forces ********************************
 *                                                                                  *
 *                           Cartesian components (eV/A)                            *
 * -------------------------------------------------------------------------------- *
 *                         x                    y                    z              *
 *                                                                                  *
 * Si              1      0.00011              0.00000              0.00000         *
 * Si              2     -0.00011              0.00000             -0.00000         *
 *                                                                                  *
 ************************************************************************************
  
 +------------+-------------+-------------+-----------------+ <-- min LBFGS
 |    Step    |   lambda    |   F.delta'  |    enthalpy     | <-- min LBFGS
 +------------+-------------+-------------+-----------------+ <-- min LBFGS
 |  previous  |    0.000000 |    0.000029 |     -340.967586 | <-- min LBFGS
 | trial step |    0.500000 |    0.000019 |     -340.967586 | <-- min LBFGS
 +------------+-------------+-------------+-----------------+ <-- min LBFGS
  

--------------------------------------------------------------------------------
 LBFGS: improving iteration         4 with bisection search (lambda=  0.250000)
--------------------------------------------------------------------------------

                           -------------------------------
                                     Cell Contents
                           -------------------------------

            xxxxxxxxxxxxxxxxxxxxxxxxxxxxxxxxxxxxxxxxxxxxxxxxxxxxxxxxxxxxxxxxx
            x  Element         Atom        Fractional coordinates of atoms  x
            x                 Number           u          v          w      x
            x---------------------------------------------------------------x
            x  Si                1         0.001272  -0.001272  -0.001272   x
            x  Si                2         0.248728   0.251272   0.251272   x
            xxxxxxxxxxxxxxxxxxxxxxxxxxxxxxxxxxxxxxxxxxxxxxxxxxxxxxxxxxxxxxxxx


------------------------------------------------------------------------ <-- SCF
SCF loop      Energy           Fermi           Energy gain       Timer   <-- SCF
                               energy          per atom          (sec)   <-- SCF
------------------------------------------------------------------------ <-- SCF
Initial  -3.40967624E+002  0.00000000E+000                        10.42  <-- SCF
      1  -3.40967586E+002  4.55627579E+000  -1.88439229E-005      10.48  <-- SCF
      2  -3.40967586E+002  4.55627579E+000   4.30200472E-012      10.58  <-- SCF
      3  -3.40967586E+002  4.55627589E+000   2.03015953E-012      10.69  <-- SCF
      4  -3.40967586E+002  4.55627600E+000   5.26874735E-012      10.79  <-- SCF
------------------------------------------------------------------------ <-- SCF
 
Final energy, E             =  -340.9675863032     eV
Final free energy (E-TS)    =  -340.9675863032     eV
(energies not corrected for finite basis set)
 
NB est. 0K energy (E-0.5TS)      =  -340.9675863032     eV
 

 ******************************** Symmetrised Forces ********************************
 *                                                                                  *
 *                           Cartesian components (eV/A)                            *
 * -------------------------------------------------------------------------------- *
 *                         x                    y                    z              *
 *                                                                                  *
 * Si              1      0.00015              0.00000              0.00000         *
 * Si              2     -0.00015              0.00000              0.00000         *
 *                                                                                  *
 ************************************************************************************
  
 +------------+-------------+-------------+-----------------+ <-- min LBFGS
 |    Step    |   lambda    |   F.delta'  |    enthalpy     | <-- min LBFGS
 +------------+-------------+-------------+-----------------+ <-- min LBFGS
 |  previous  |    0.000000 |    0.000029 |     -340.967586 | <-- min LBFGS
 | trial step |    0.250000 |    0.000025 |     -340.967586 | <-- min LBFGS
 +------------+-------------+-------------+-----------------+ <-- min LBFGS
  
 LBFGS: looks like bisection search has succeeded in going downhill
 LBFGS: finished iteration     4 with enthalpy= -3.40967586E+002 eV
  
 +-----------+-----------------+-----------------+------------+-----+ <-- LBFGS
 | Parameter |      value      |    tolerance    |    units   | OK? | <-- LBFGS
 +-----------+-----------------+-----------------+------------+-----+ <-- LBFGS
 |  dE/ion   |   8.120638E-012 |   1.000000E-007 |         eV | Yes | <-- LBFGS
 |  |F|max   |   1.506017E-004 |   1.000000E-005 |       eV/A | No  | <-- LBFGS
 |  |dR|max  |   1.426128E-006 |   1.000000E-003 |          A | Yes | <-- LBFGS
 +-----------+-----------------+-----------------+------------+-----+ <-- LBFGS
  

================================================================================
 Starting LBFGS iteration          5 ...
================================================================================

Writing analysis data to castep.castep_bin

Writing model to castep.check
  
 +------------+-------------+-------------+-----------------+ <-- min LBFGS
 |    Step    |   lambda    |   F.delta'  |    enthalpy     | <-- min LBFGS
 +------------+-------------+-------------+-----------------+ <-- min LBFGS
 |  previous  |    0.000000 |    0.000025 |     -340.967586 | <-- min LBFGS
 +------------+-------------+-------------+-----------------+ <-- min LBFGS
  

--------------------------------------------------------------------------------
 LBFGS: starting iteration         5 with trial guess (lambda=  1.000000)
--------------------------------------------------------------------------------

                           -------------------------------
                                     Cell Contents
                           -------------------------------

            xxxxxxxxxxxxxxxxxxxxxxxxxxxxxxxxxxxxxxxxxxxxxxxxxxxxxxxxxxxxxxxxx
            x  Element         Atom        Fractional coordinates of atoms  x
            x                 Number           u          v          w      x
            x---------------------------------------------------------------x
            x  Si                1         0.001270  -0.001270  -0.001270   x
            x  Si                2         0.248730   0.251270   0.251270   x
            xxxxxxxxxxxxxxxxxxxxxxxxxxxxxxxxxxxxxxxxxxxxxxxxxxxxxxxxxxxxxxxxx


------------------------------------------------------------------------ <-- SCF
SCF loop      Energy           Fermi           Energy gain       Timer   <-- SCF
                               energy          per atom          (sec)   <-- SCF
------------------------------------------------------------------------ <-- SCF
Initial  -3.40967633E+002  0.00000000E+000                        11.57  <-- SCF
      1  -3.40967586E+002  4.55630773E+000  -2.33158839E-005      11.63  <-- SCF
      2  -3.40967586E+002  4.55630773E+000   1.44141327E-010      11.74  <-- SCF
      3  -3.40967586E+002  4.55630714E+000   2.36610260E-011      11.84  <-- SCF
      4  -3.40967586E+002  4.55630645E+000  -2.07124609E-011      11.94  <-- SCF
------------------------------------------------------------------------ <-- SCF
 
Final energy, E             =  -340.9675863005     eV
Final free energy (E-TS)    =  -340.9675863005     eV
(energies not corrected for finite basis set)
 
NB est. 0K energy (E-0.5TS)      =  -340.9675863005     eV
 

 ******************************** Symmetrised Forces ********************************
 *                                                                                  *
 *                           Cartesian components (eV/A)                            *
 * -------------------------------------------------------------------------------- *
 *                         x                    y                    z              *
 *                                                                                  *
 * Si              1     -0.00010              0.00000              0.00000         *
 * Si              2      0.00010              0.00000              0.00000         *
 *                                                                                  *
 ************************************************************************************
  
 +------------+-------------+-------------+-----------------+ <-- min LBFGS
 |    Step    |   lambda    |   F.delta'  |    enthalpy     | <-- min LBFGS
 +------------+-------------+-------------+-----------------+ <-- min LBFGS
 |  previous  |    0.000000 |    0.000025 |     -340.967586 | <-- min LBFGS
 | trial step |    1.000000 |   -0.000016 |     -340.967586 | <-- min LBFGS
 +------------+-------------+-------------+-----------------+ <-- min LBFGS
  

--------------------------------------------------------------------------------
 LBFGS: improving iteration         5 with line minimization (lambda=  0.609136)
--------------------------------------------------------------------------------

                           -------------------------------
                                     Cell Contents
                           -------------------------------

            xxxxxxxxxxxxxxxxxxxxxxxxxxxxxxxxxxxxxxxxxxxxxxxxxxxxxxxxxxxxxxxxx
            x  Element         Atom        Fractional coordinates of atoms  x
            x                 Number           u          v          w      x
            x---------------------------------------------------------------x
            x  Si                1         0.001271  -0.001271  -0.001271   x
            x  Si                2         0.248729   0.251271   0.251271   x
            xxxxxxxxxxxxxxxxxxxxxxxxxxxxxxxxxxxxxxxxxxxxxxxxxxxxxxxxxxxxxxxxx


------------------------------------------------------------------------ <-- SCF
SCF loop      Energy           Fermi           Energy gain       Timer   <-- SCF
                               energy          per atom          (sec)   <-- SCF
------------------------------------------------------------------------ <-- SCF
Initial  -3.40967623E+002  0.00000000E+000                        12.14  <-- SCF
      1  -3.40967586E+002  4.55629420E+000  -1.81904550E-005      12.20  <-- SCF
      2  -3.40967586E+002  4.55629420E+000   1.63137819E-011      12.30  <-- SCF
      3  -3.40967586E+002  4.55629441E+000   5.29291592E-012      12.40  <-- SCF
      4  -3.40967586E+002  4.55629463E+000   8.36232378E-012      12.50  <-- SCF
------------------------------------------------------------------------ <-- SCF
 
Final energy, E             =  -340.9675863021     eV
Final free energy (E-TS)    =  -340.9675863021     eV
(energies not corrected for finite basis set)
 
NB est. 0K energy (E-0.5TS)      =  -340.9675863021     eV
 

 ******************************** Symmetrised Forces ********************************
 *                                                                                  *
 *                           Cartesian components (eV/A)                            *
 * -------------------------------------------------------------------------------- *
 *                         x                    y                    z              *
 *                                                                                  *
 * Si              1      0.00001              0.00000              0.00000         *
 * Si              2     -0.00001              0.00000             -0.00000         *
 *                                                                                  *
 ************************************************************************************
  
 +------------+-------------+-------------+-----------------+ <-- min LBFGS
 |    Step    |   lambda    |   F.delta'  |    enthalpy     | <-- min LBFGS
 +------------+-------------+-------------+-----------------+ <-- min LBFGS
 |  previous  |    0.000000 |    0.000025 |     -340.967586 | <-- min LBFGS
 | trial step |    1.000000 |   -0.000016 |     -340.967586 | <-- min LBFGS
 |  line step |    0.609136 |  8.592E-007 |     -340.967586 | <-- min LBFGS
 +------------+-------------+-------------+-----------------+ <-- min LBFGS
  
 LBFGS: finished iteration     5 with enthalpy= -3.40967586E+002 eV
  
 +-----------+-----------------+-----------------+------------+-----+ <-- LBFGS
 | Parameter |      value      |    tolerance    |    units   | OK? | <-- LBFGS
 +-----------+-----------------+-----------------+------------+-----+ <-- LBFGS
 |  dE/ion   |   5.577863E-010 |   1.000000E-007 |         eV | Yes | <-- LBFGS
 |  |F|max   |   5.236151E-006 |   1.000000E-005 |       eV/A | Yes | <-- LBFGS
 |  |dR|max  |   5.589196E-006 |   1.000000E-003 |          A | Yes | <-- LBFGS
 +-----------+-----------------+-----------------+------------+-----+ <-- LBFGS
  
 LBFGS: Geometry optimization completed successfully.

================================================================================
 LBFGS: Final Configuration:
================================================================================

                           -------------------------------
                                     Cell Contents
                           -------------------------------

            xxxxxxxxxxxxxxxxxxxxxxxxxxxxxxxxxxxxxxxxxxxxxxxxxxxxxxxxxxxxxxxxx
            x  Element         Atom        Fractional coordinates of atoms  x
            x                 Number           u          v          w      x
            x---------------------------------------------------------------x
            x  Si                1         0.001271  -0.001271  -0.001271   x
            x  Si                2         0.248729   0.251271   0.251271   x
            xxxxxxxxxxxxxxxxxxxxxxxxxxxxxxxxxxxxxxxxxxxxxxxxxxxxxxxxxxxxxxxxx


 LBFGS: Final Enthalpy     = -3.40967586E+002 eV
 LBFGS: Final <frequency>  =     396.08778 cm-1
  
  **********************************************************
  *** There were at least     2 warnings during this run ***
  *** => please check the whole of this file carefully!  ***
  **********************************************************

 ******************************** Symmetrised Forces ********************************
 *                                                                                  *
 *                           Cartesian components (eV/A)                            *
 * -------------------------------------------------------------------------------- *
 *                         x                    y                    z              *
 *                                                                                  *
 * Si              1      0.00001              0.00000              0.00000         *
 * Si              2     -0.00001              0.00000             -0.00000         *
 *                                                                                  *
 ************************************************************************************

 *********** Symmetrised Stress Tensor ***********
 *                                               *
 *          Cartesian components (GPa)           *
 * --------------------------------------------- *
 *             x             y             z     *
 *                                               *
 *  x      0.000008      0.000000      0.000000  *
 *  y      0.000000     -0.001607     -1.487486  *
 *  z      0.000000     -1.487486     -0.061118  *
 *                                               *
 *  Pressure:    0.0209                          *
 *                                               *
 *************************************************

 Pseudo atomic calculation performed for Si 3s2 3p2

 Converged in 11 iterations to a total energy of -165.0683 eV
Charge spilling parameter for spin component 1 = 0.87%

            Orbital Populations       
     Ion    Atom   Orbital             Charge
  -------------------------------------------
     Si     1      S                    1.380
     Si     1      Px                   0.873
     Si     1      Py                   0.896
     Si     1      Pz                   0.851
     Si     2      S                    1.380
     Si     2      Px                   0.873
     Si     2      Py                   0.896
     Si     2      Pz                   0.851
  -------------------------------------------
                           Total:       8.000
  -------------------------------------------

     Atomic Populations (Mulliken)
     -----------------------------
Species          Ion     s       p       d       f      Total   Charge (e)
==========================================================================
  Si              1     1.380   2.620   0.000   0.000   4.000     0.000
  Si              2     1.380   2.620   0.000   0.000   4.000     0.000
==========================================================================

                 Bond                   Population      Length (A)
======================================================================
              Si 1 -- Si 2                   2.93        2.36017
======================================================================


Writing analysis data to castep.castep_bin

Writing model to castep.check
 
 A BibTeX formatted list of references used in this run has been written to 
 castep.bib
 
Initialisation time =      3.83 s
Calculation time    =      9.71 s
Finalisation time   =      2.15 s
Total time          =     15.69 s
Peak Memory Use     = 1175604 kB
  
Overall parallel efficiency rating: Good (70%)                                  
  
Data was distributed by:-
k-point (64-way); efficiency rating: Good (71%)                                 
  
Parallel notes:
1) Calculation only took 13.6 s, so efficiency estimates may be inaccurate.     
